 +-------------------------------------------------+
 |                                                 |
 |      CCC   AA    SSS  TTTTT  EEEEE  PPPP        |
 |     C     A  A  S       T    E      P   P       |
 |     C     AAAA   SS     T    EEE    PPPP        |
 |     C     A  A     S    T    E      P           |
 |      CCC  A  A  SSS     T    EEEEE  P           |
 |                                                 |
 +-------------------------------------------------+
 |                                                 |
 | Welcome to Academic Release CASTEP version 18.1 |          
 | Ab Initio Total Energy Program                  |
 |                                                 |
 | Authors:                                        |
 | M. Segall, M. Probert, C. Pickard, P. Hasnip,   |
 | S. Clark, K. Refson, J. R. Yates, M. Payne      |
 |                                                 |
 | Contributors:                                   |
 | P. Lindan, P. Haynes, J. White, V. Milman,      |
 | N. Govind, M. Gibson, P. Tulip, V. Cocula,      |
 | B. Montanari, D. Quigley, M. Glover,            |
 | L. Bernasconi, A. Perlov, M. Plummer,           |
 | E. McNellis, J. Meyer, J. Gale, D. Jochym       |
 | J. Aarons, B. Walker, R. Gillen, D. Jones       |
 | T. Green, I. J. Bush, C. J. Armstrong,          |
 | E. J. Higgins, E. L. Brown, M. S. McFly,        |
 | J. Wilkins, B-C. Shih, P. J. P. Byrne           |
 |                                                 |
 | Copyright (c) 2000 - 2017                       |
 |                                                 |
 |     Distributed under the terms of an           |
 |     Agreement between the United Kingdom        |
 |     Car-Parrinello (UKCP) Consortium,           |
 |     Daresbury Laboratory and Accelrys, Inc.     |
 |                                                 |
 | Please cite                                     |
 |                                                 |
 |     "First principles methods using CASTEP"     |
 |                                                 |
 |         Zeitschrift fuer Kristallographie       |
 |           220(5-6) pp. 567-570 (2005)           |
 |                                                 |
 | S. J. Clark, M. D. Segall, C. J. Pickard,       |
 | P. J. Hasnip, M. J. Probert, K. Refson,         |
 | M. C. Payne                                     |
 |                                                 |
 |       in all publications arising from          |
 |              your use of CASTEP                 |
 |                                                 |
 +-------------------------------------------------+


 Compiled for linux_x86_64_gfortran4.8 on Thu, 19 Jul 2018 15:33:51 +0100
 from code version 70483bd0ad64+  Sun, 10 Dec 2017 12:18:29 +0000
 Compiler: GNU Fortran 4.8.5; Optimisation: fast
 MATHLIBS: Intel MKL(2018.0.0) (LAPACK version 3.7.0)
 FFT Lib : mkl
 Fundamental constants values: CODATA 2014

 Run started: Tue, 11 Jun 2019 13:47:48 +0100

 Atomic calculation performed for H: 1s1

 Converged in 41 iterations to an ae energy of -12.488 eV

   ============================================================                
   | Pseudopotential Report - Date of generation 11-06-2019   |                
   ------------------------------------------------------------                
   | Element: H Ionic charge:  1.00 Level of theory: PBE      |                
   | Atomic Solver: Koelling-Harmon                           |                
   |                                                          |                
   |               Reference Electronic Structure             |                
   |         Orbital         Occupation         Energy        |                
   |            1s              1.000           -0.239        |                
   |                                                          |                
   |                 Pseudopotential Definition               |                
   |        Beta     l      e      Rc     scheme   norm       |                
   |          1      0   -0.239   0.599     qc      0         |                
   |          2      0    0.250   0.599     qc      0         |                
   |         loc     1    0.000   0.599     pn      0         |                
   |                                                          |                
   | Augmentation charge Rinner = 0.421                       |                
   | No partial core correction                               |                
   ------------------------------------------------------------                
   | "1|0.6|13|15|17|10(qc=8)"                                |                
   ------------------------------------------------------------                
   |      Author: Chris J. Pickard, Cambridge University      |                
   ============================================================                

 Atomic calculation performed for C: 1s2 2s2 2p2

 Converged in 54 iterations to an ae energy of -1027.632 eV

   ============================================================                
   | Pseudopotential Report - Date of generation 11-06-2019   |                
   ------------------------------------------------------------                
   | Element: C Ionic charge:  4.00 Level of theory: PBE      |                
   | Atomic Solver: Koelling-Harmon                           |                
   |                                                          |                
   |               Reference Electronic Structure             |                
   |         Orbital         Occupation         Energy        |                
   |            2s              2.000           -0.505        |                
   |            2p              2.000           -0.194        |                
   |                                                          |                
   |                 Pseudopotential Definition               |                
   |        Beta     l      e      Rc     scheme   norm       |                
   |          1      0   -0.505   1.395     qc      0         |                
   |          2      0    0.250   1.395     qc      0         |                
   |          3      1   -0.194   1.395     qc      0         |                
   |          4      1    0.250   1.395     qc      0         |                
   |         loc     2    0.000   1.395     pn      0         |                
   |                                                          |                
   | Augmentation charge Rinner = 0.983                       |                
   | Partial core correction Rc = 0.983                       |                
   ------------------------------------------------------------                
   | "2|1.4|10|12|13|20:21(qc=7)"                             |                
   ------------------------------------------------------------                
   |      Author: Chris J. Pickard, Cambridge University      |                
   ============================================================                

 Pseudo atomic calculation performed for H 1s1

 Converged in 14 iterations to a total energy of -12.3840 eV


 Pseudo atomic calculation performed for C 2s2 2p2

 Converged in 17 iterations to a total energy of -148.1084 eV

 Calculation not parallelised.

 ************************************ Title ************************************
 

 ***************************** General Parameters ******************************
  
 output verbosity                               : normal  (1)
 write checkpoint data to                       : castep.check
 type of calculation                            : geometry optimization
 stress calculation                             : off
 density difference calculation                 : off
 electron localisation func (ELF) calculation   : off
 Hirshfeld analysis                             : off
 unlimited duration calculation
 timing information                             : on
 memory usage estimate                          : on
 write extra output files                       : on
 write final potential to formatted file        : off
 write final density to formatted file          : off
 write structure in CELL formatted file         : on
 write BibTeX reference list                    : on
 write OTFG pseudopotential files               : on
 write electrostatic potential file             : on
 write bands file                               : on
 checkpoint writing                             : both castep_bin and check files
  
 output         length unit                     : A
 output           mass unit                     : amu
 output           time unit                     : ps
 output         charge unit                     : e
 output           spin unit                     : hbar/2
 output         energy unit                     : eV
 output          force unit                     : eV/A
 output       velocity unit                     : A/ps
 output       pressure unit                     : GPa
 output     inv_length unit                     : 1/A
 output      frequency unit                     : cm-1
 output force constant unit                     : eV/A**2
 output         volume unit                     : A**3
 output   IR intensity unit                     : (D/A)**2/amu
 output         dipole unit                     : D
 output         efield unit                     : eV/A/e
 output        entropy unit                     : J/mol/K
  
 wavefunctions paging                           : none
 random number generator seed                   : randomised (134748862)
 data distribution                              : optimal for this architecture
 optimization strategy                          : balance speed and memory

 *********************** Exchange-Correlation Parameters ***********************
  
 using functional                               : Perdew Burke Ernzerhof
 relativistic treatment                         : Koelling-Harmon
 DFT+D: Semi-empirical dispersion correction    : off

 ************************* Pseudopotential Parameters **************************
  
 pseudopotential representation                 : reciprocal space
 <beta|phi> representation                      : reciprocal space
 spin-orbit coupling                            : off

 **************************** Basis Set Parameters *****************************
  
 plane wave basis set cut-off                   :   300.0000   eV
 size of standard grid                          :     1.7500
 size of   fine   gmax                          :    15.5288   1/A
 finite basis set correction                    : automatic
 number of sample energies                      :          3
           sample  spacing                      :     5.0000   eV

 **************************** Electronic Parameters ****************************
  
 number of  electrons                           :  24.00    
 net charge of system                           :  0.000    
 treating system as non-spin-polarized
 number of bands                                :         16

 ********************* Electronic Minimization Parameters **********************
  
 Method: Treating system as metallic with density mixing treatment of electrons,
         and number of  SD  steps               :          1
         and number of  CG  steps               :          4
  
 total energy / atom convergence tol.           : 0.1000E-04   eV
 eigen-energy convergence tolerance             : 0.1000E-05   eV
 max force / atom convergence tol.              : ignored
 convergence tolerance window                   :          3   cycles
 max. number of SCF cycles                      :         50
 number of fixed-spin iterations                :         10
 smearing scheme                                : Gaussian
 smearing width                                 : 0.2000       eV
 Fermi energy convergence tolerance             : 0.2721E-13   eV
 periodic dipole correction                     : NONE

 ************************** Density Mixing Parameters **************************
  
 density-mixing scheme                          : Broyden
 max. length of mixing history                  :         20
 charge density mixing amplitude                : 0.8000    
 cut-off energy for mixing                      :  300.0       eV

 *********************** Population Analysis Parameters ************************
  
 Population analysis with cutoff                :  3.000       A
 Population analysis output                     : summary and pdos components

 ********************** Geometry Optimization Parameters ***********************
  
 optimization method                            : LBFGS
 max. no. of LBFGS updates                      : unbounded
 variable cell method                           : fixed basis quality
 max. number of steps                           :         30
 estimated bulk modulus                         :  500.0       GPa
 estimated <frequency>                          :  1668.       cm-1
 geom line minimiser                            : on
 with line minimiser tolerance                  :     0.4000
 total energy convergence tolerance             : 0.2000E-04   eV/atom
        max ionic |force| tolerance             : 0.5000E-01   eV/A
 max ionic |displacement| tolerance             : 0.1000E-02   A
   max |stress component| tolerance             : 0.1000       GPa
 convergence tolerance window                   :          2   steps
 backup results every                           :          5   steps
 write geom trajectory file                     : on

 *******************************************************************************
  

                           -------------------------------
                                      Unit Cell
                           -------------------------------
        Real Lattice(A)                      Reciprocal Lattice(1/A)
     6.0000000     0.0000000     0.0000000        1.047197551   0.000000000   0.000000000
     0.0000000     6.0000000     0.0000000        0.000000000   1.047197551   0.000000000
     0.0000000     0.0000000     6.0000000        0.000000000   0.000000000   1.047197551

                       Lattice parameters(A)       Cell Angles
                    a =      6.000000          alpha =   90.000000
                    b =      6.000000          beta  =   90.000000
                    c =      6.000000          gamma =   90.000000

                       Current cell volume =           216.000000       A**3
                                   density =             0.222812   AMU/A**3
                                           =             0.369988     g/cm^3

                           -------------------------------
                                     Cell Contents
                           -------------------------------
                         Total number of ions in cell =   15
                      Total number of species in cell =    2
                        Max number of any one species =   12

            xxxxxxxxxxxxxxxxxxxxxxxxxxxxxxxxxxxxxxxxxxxxxxxxxxxxxxxxxxxx
            x  Element    Atom        Fractional coordinates of atoms  x
            x            Number           u          v          w      x
            x----------------------------------------------------------x
            x  H            1         0.312512  -0.050592   0.990621   x 
            x  H            2         0.493387   0.074671   0.817930   x 
            x  H            3         0.288678   0.253320   0.884318   x 
            x  H            4         0.220145   0.017979   0.717116   x 
            x  H            5         0.801046   0.352073   0.551195   x 
            x  H            6         1.062210   0.261766   0.594401   x 
            x  H            7         1.014923   0.282665   0.319527   x 
            x  H            8         0.867982   0.074281   0.471261   x 
            x  H            9        -0.025005   0.633999   0.355538   x 
            x  H           10        -0.102450   0.631548   0.086791   x 
            x  H           11        -0.052434   0.369864   0.171931   x 
            x  H           12         0.177104   0.556872   0.152456   x 
            x  C            1         0.316635   0.075487   0.859893   x 
            x  C            2         0.926911   0.246099   0.474187   x 
            x  C            3         0.003336   0.540002   0.202685   x 
            xxxxxxxxxxxxxxxxxxxxxxxxxxxxxxxxxxxxxxxxxxxxxxxxxxxxxxxxxxxx


                         No user defined ionic velocities

                           -------------------------------
                                   Details of Species
                           -------------------------------

                               Mass of species in AMU
                                    H    1.0079400
                                    C   12.0107000

                          Electric Quadrupole Moment (Barn)
                                    H    0.0028600 Isotope  2
                                    C    0.0332700 Isotope 11

                          Files used for pseudopotentials:
                                    H 1|0.6|13|15|17|10(qc=8)
                                    C 2|1.4|10|12|13|20:21(qc=7)

                           -------------------------------
                              k-Points For BZ Sampling
                           -------------------------------
                       MP grid size for SCF calculation is  2  2  2
                            with an offset of   0.000  0.000  0.000
                       Number of kpoints used =             4

                           -------------------------------
                               Symmetry and Constraints
                           -------------------------------

                      Maximum deviation from symmetry =  0.00000         ANG

                      Number of symmetry operations   =           1
                      Number of ionic constraints     =           3
                      Point group of crystal =     1: C1, 1, 1
                      Space group of crystal =     1: P1, P 1

             Set iprint > 1 for details on symmetry rotations/translations

                         Centre of mass is constrained
             Set iprint > 1 for details of linear ionic constraints

                         Number of cell constraints= 3
                         Cell constraints are:  1 2 3 0 0 0

                         External pressure/stress (GPa)
                          1.00000   0.00000   0.00000
                                    1.00000   0.00000
                                              1.00000
  
+---------------- MEMORY AND SCRATCH DISK ESTIMATES PER PROCESS --------------+
|                                                     Memory          Disk    |
| Baseline code, static data and system overhead       36.0 MB         0.0 MB |
| BLAS internal memory storage                          0.0 MB         0.0 MB |
| Model and support data                               17.9 MB         8.3 MB |
| Electronic energy minimisation requirements          16.2 MB         0.0 MB |
| Force calculation requirements                        3.9 MB         0.0 MB |
|                                               ----------------------------- |
| Approx. total storage required per process           70.1 MB         8.3 MB |
|                                                                             |
| Requirements will fluctuate during execution and may exceed these estimates |
+-----------------------------------------------------------------------------+
Calculating finite basis set correction with  3 cut-off energies.
Calculating total energy with cut-off of  290.000 eV.
------------------------------------------------------------------------ <-- SCF
SCF loop      Energy           Fermi           Energy gain       Timer   <-- SCF
                               energy          per atom          (sec)   <-- SCF
------------------------------------------------------------------------ <-- SCF
Initial   2.32869138E+002  0.00000000E+000                         4.31  <-- SCF
      1  -5.89643959E+002  7.92247246E-001   5.48342065E+001       4.70  <-- SCF
      2  -6.68693138E+002 -7.55754170E-001   5.26994523E+000       4.96  <-- SCF
      3  -6.70701894E+002 -8.83723440E-001   1.33917084E-001       5.29  <-- SCF
      4  -6.61195065E+002 -4.16185750E-001  -6.33788635E-001       5.66  <-- SCF
      5  -6.60409556E+002 -3.54745430E-001  -5.23672341E-002       6.11  <-- SCF
      6  -6.60293912E+002 -2.49739026E-001  -7.70961667E-003       6.49  <-- SCF
      7  -6.60310153E+002 -1.29485724E-001   1.08277374E-003       6.86  <-- SCF
      8  -6.60323280E+002 -3.38098013E-002   8.75087471E-004       7.16  <-- SCF
      9  -6.60324071E+002 -2.58458684E-002   5.27387277E-005       7.51  <-- SCF
     10  -6.60324117E+002 -2.31886359E-002   3.06690107E-006       7.77  <-- SCF
     11  -6.60324154E+002 -2.20555105E-002   2.48910270E-006       8.06  <-- SCF
------------------------------------------------------------------------ <-- SCF
 
Final energy, E             =  -660.3241540922     eV
Final free energy (E-TS)    =  -660.3241540922     eV
(energies not corrected for finite basis set)
 
NB est. 0K energy (E-0.5TS)      =  -660.3241540922     eV
 
Calculating total energy with cut-off of  295.000 eV.
------------------------------------------------------------------------ <-- SCF
SCF loop      Energy           Fermi           Energy gain       Timer   <-- SCF
                               energy          per atom          (sec)   <-- SCF
------------------------------------------------------------------------ <-- SCF
Initial  -6.60324081E+002  0.00000000E+000                         8.23  <-- SCF
      1  -6.60540340E+002 -2.31831355E-002   1.44172357E-002       8.51  <-- SCF
      2  -6.60540364E+002 -2.31837518E-002   1.63046629E-006       8.78  <-- SCF
      3  -6.60540432E+002 -2.15541132E-002   4.49468908E-006       9.08  <-- SCF
      4  -6.60540448E+002 -2.18149369E-002   1.06779463E-006       9.32  <-- SCF
------------------------------------------------------------------------ <-- SCF
 
Final energy, E             =  -660.5404477024     eV
Final free energy (E-TS)    =  -660.5404477024     eV
(energies not corrected for finite basis set)
 
NB est. 0K energy (E-0.5TS)      =  -660.5404477024     eV
 
Calculating total energy with cut-off of  300.000 eV.
------------------------------------------------------------------------ <-- SCF
SCF loop      Energy           Fermi           Energy gain       Timer   <-- SCF
                               energy          per atom          (sec)   <-- SCF
------------------------------------------------------------------------ <-- SCF
Initial  -6.60540359E+002  0.00000000E+000                         9.49  <-- SCF
      1  -6.60941976E+002 -2.41836339E-002   2.67744653E-002       9.79  <-- SCF
      2  -6.60942043E+002 -2.41839215E-002   4.45770434E-006      10.13  <-- SCF
      3  -6.60942229E+002 -2.16981256E-002   1.24454567E-005      10.45  <-- SCF
      4  -6.60942278E+002 -2.21091080E-002   3.24747750E-006      10.75  <-- SCF
      5  -6.60942292E+002 -2.22080529E-002   9.12489346E-007      10.99  <-- SCF
------------------------------------------------------------------------ <-- SCF
 
Final energy, E             =  -660.9422917553     eV
Final free energy (E-TS)    =  -660.9422917553     eV
(energies not corrected for finite basis set)
 
NB est. 0K energy (E-0.5TS)      =  -660.9422917553     eV
 
 For future reference: finite basis dEtot/dlog(Ecut) =     -17.077507eV
 Total energy corrected for finite basis set =    -660.891442 eV
 
+---------------- MEMORY AND SCRATCH DISK ESTIMATES PER PROCESS --------------+
|                                                     Memory          Disk    |
| Model and support data                               30.0 MB         8.3 MB |
| Electronic energy minimisation requirements          16.2 MB         0.0 MB |
| Geometry minimisation requirements                   19.2 MB         0.0 MB |
|                                               ----------------------------- |
| Approx. total storage required per process           65.4 MB         8.3 MB |
|                                                                             |
| Requirements will fluctuate during execution and may exceed these estimates |
+-----------------------------------------------------------------------------+
 

 ************************************** Forces **************************************
 *                                                                                  *
 *                           Cartesian components (eV/A)                            *
 * -------------------------------------------------------------------------------- *
 *                         x                    y                    z              *
 *                                                                                  *
 * H               1     -0.68993              0.09747              1.10801         *
 * H               2      0.99644             -0.21218             -0.68409         *
 * H               3     -0.67605              0.44066              0.90151         *
 * H               4     -0.23800             -0.25322             -0.46232         *
 * H               5     -0.80446              0.77111             -0.79133         *
 * H               6      0.56801             -0.34781              0.79962         *
 * H               7     -0.29131             -1.47308              1.94412         *
 * H               8     -0.30310             -0.94771              0.32821         *
 * H               9     -0.16156             -0.64211              1.03525         *
 * H              10     -0.15440              1.08983             -1.16570         *
 * H              11     -0.53050              1.35566             -1.33191         *
 * H              12      0.74721              0.17716             -0.30510         *
 * C               1      0.96429             -0.31179             -0.55810         *
 * C               2      0.74981             -2.38575              2.29451         *
 * C               3     -0.17645              2.64176             -3.11267         *
 *                                                                                  *
 ************************************************************************************

 ***************** Stress Tensor *****************
 *                                               *
 *          Cartesian components (GPa)           *
 * --------------------------------------------- *
 *             x             y             z     *
 *                                               *
 *  x     -3.368935      0.518654     -0.402966  *
 *  y      0.518654     -6.926071      5.760466  *
 *  z     -0.402966      5.760466     -8.330301  *
 *                                               *
 *  Pressure:    6.2084                          *
 *                                               *
 *************************************************

 *********** Constrained Stress Tensor ***********
 *                                               *
 *          Cartesian components (GPa)           *
 * --------------------------------------------- *
 *             x             y             z     *
 *                                               *
 *  x     -3.369031      0.000000     -0.000000  *
 *  y      0.000000     -6.933468      0.000000  *
 *  z     -0.000000      0.000000     -8.337661  *
 *                                               *
 *  Pressure:    6.2134                          *
 *                                               *
 *************************************************
 LBFGS: finished iteration     0 with enthalpy= -6.59543276E+002 eV
  
 +-----------+-----------------+-----------------+------------+-----+ <-- LBFGS
 | Parameter |      value      |    tolerance    |    units   | OK? | <-- LBFGS
 +-----------+-----------------+-----------------+------------+-----+ <-- LBFGS
 |  dE/ion   |   0.000000E+000 |   2.000000E-005 |         eV | No  | <-- LBFGS
 |  |F|max   |   4.086406E+000 |   5.000000E-002 |       eV/A | No  | <-- LBFGS
 |  |dR|max  |   0.000000E+000 |   1.000000E-003 |          A | No  | <-- LBFGS
 |   Smax    |   7.337661E+000 |   1.000000E-001 |        GPa | No  | <-- LBFGS
 +-----------+-----------------+-----------------+------------+-----+ <-- LBFGS
  

================================================================================
 Starting LBFGS iteration          1 ...
================================================================================
  
 +------------+-------------+-------------+-----------------+ <-- min LBFGS
 |    Step    |   lambda    |   F.delta'  |    enthalpy     | <-- min LBFGS
 +------------+-------------+-------------+-----------------+ <-- min LBFGS
 |  previous  |    0.000000 |    1.668951 |     -659.543276 | <-- min LBFGS
 +------------+-------------+-------------+-----------------+ <-- min LBFGS
  

--------------------------------------------------------------------------------
 LBFGS: starting iteration         1 with trial guess (lambda=  1.000000)
--------------------------------------------------------------------------------
 
+---------------- MEMORY AND SCRATCH DISK ESTIMATES PER PROCESS --------------+
|                                                     Memory          Disk    |
| Model and support data                               30.1 MB         8.3 MB |
| Electronic energy minimisation requirements          16.3 MB         0.0 MB |
| Geometry minimisation requirements                   19.3 MB         0.0 MB |
|                                               ----------------------------- |
| Approx. total storage required per process           65.7 MB         8.3 MB |
|                                                                             |
| Requirements will fluctuate during execution and may exceed these estimates |
+-----------------------------------------------------------------------------+
 

                           -------------------------------
                                      Unit Cell
                           -------------------------------
        Real Lattice(A)              Reciprocal Lattice(1/A)
     6.0094761    -0.0000000     0.0000000        1.045546263   0.000000000  -0.000000000
    -0.0000000     6.0237339    -0.0000000        0.000000000   1.043071530   0.000000000
     0.0000000    -0.0000000     6.0293506       -0.000000000   0.000000000   1.042099834

                       Lattice parameters(A)       Cell Angles
                    a =      6.009476          alpha =   90.000000
                    b =      6.023734          beta  =   90.000000
                    c =      6.029351          gamma =   90.000000

                Current cell volume =           218.259387 A**3

                           -------------------------------
                                     Cell Contents
                           -------------------------------

            xxxxxxxxxxxxxxxxxxxxxxxxxxxxxxxxxxxxxxxxxxxxxxxxxxxxxxxxxxxxxxxxx
            x  Element         Atom        Fractional coordinates of atoms  x
            x                 Number           u          v          w      x
            x---------------------------------------------------------------x
            x  H                 1         0.309008  -0.050097   0.996247   x
            x  H                 2         0.498447   0.073594   0.814456   x
            x  H                 3         0.285245   0.255558   0.888896   x
            x  H                 4         0.218936   0.016694   0.714768   x
            x  H                 5         0.796961   0.355989   0.547176   x
            x  H                 6         1.065094   0.260000   0.598462   x
            x  H                 7         1.013443   0.275184   0.329399   x
            x  H                 8         0.866443   0.069468   0.472928   x
            x  H                 9        -0.025825   0.630738   0.360795   x
            x  H                10        -0.103234   0.637082   0.080871   x
            x  H                11        -0.055128   0.376749   0.165167   x
            x  H                12         0.180898   0.557772   0.150907   x
            x  C                 1         0.321532   0.073904   0.857058   x
            x  C                 2         0.930719   0.233984   0.485839   x
            x  C                 3         0.002440   0.553417   0.186878   x
            xxxxxxxxxxxxxxxxxxxxxxxxxxxxxxxxxxxxxxxxxxxxxxxxxxxxxxxxxxxxxxxxx


------------------------------------------------------------------------ <-- SCF
SCF loop      Energy           Fermi           Energy gain       Timer   <-- SCF
                               energy          per atom          (sec)   <-- SCF
------------------------------------------------------------------------ <-- SCF
Initial  -6.52838173E+002  0.00000000E+000                        12.32  <-- SCF
      1  -6.65646856E+002 -1.81722822E-001   8.53912196E-001      12.60  <-- SCF
      2  -6.65816279E+002 -1.87218355E-001   1.12948869E-002      13.00  <-- SCF
      3  -6.61999034E+002  7.36455114E-002  -2.54483038E-001      13.33  <-- SCF
      4  -6.61933184E+002  9.64655051E-002  -4.38998956E-003      13.77  <-- SCF
      5  -6.61933860E+002  5.34126397E-002   4.51082887E-005      14.09  <-- SCF
      6  -6.61939294E+002 -3.97506929E-003   3.62233215E-004      14.41  <-- SCF
      7  -6.61942981E+002 -4.48899579E-002   2.45817899E-004      14.82  <-- SCF
      8  -6.61943807E+002 -6.15462789E-002   5.50437625E-005      15.21  <-- SCF
      9  -6.61943869E+002 -6.27113724E-002   4.13309906E-006      15.50  <-- SCF
     10  -6.61943878E+002 -6.27864649E-002   6.00255025E-007      15.80  <-- SCF
     11  -6.61943881E+002 -6.28149318E-002   2.16185952E-007      16.03  <-- SCF
------------------------------------------------------------------------ <-- SCF
 
Final energy, E             =  -661.9438809725     eV
Final free energy (E-TS)    =  -661.9438809725     eV
(energies not corrected for finite basis set)
 
NB est. 0K energy (E-0.5TS)      =  -661.9438809725     eV
 

 ************************************** Forces **************************************
 *                                                                                  *
 *                           Cartesian components (eV/A)                            *
 * -------------------------------------------------------------------------------- *
 *                         x                    y                    z              *
 *                                                                                  *
 * H               1     -0.42269              0.68091              0.11161         *
 * H               2      0.76407             -0.18389             -0.53275         *
 * H               3     -0.26120             -0.72161              0.47419         *
 * H               4      0.18176             -0.07685              0.07344         *
 * H               5      0.48964             -0.58385             -0.98252         *
 * H               6      0.90707             -0.38841              1.37367         *
 * H               7     -0.37773             -0.79854              0.88546         *
 * H               8     -0.46813             -1.59507              0.44748         *
 * H               9      0.10054             -0.97636             -1.01212         *
 * H              10     -1.19801              2.16636             -2.27631         *
 * H              11     -0.01425              1.46220             -0.52299         *
 * H              12      0.48941              0.34967             -0.45021         *
 * C               1      0.13180              0.04106              0.18436         *
 * C               2     -0.77005              0.86122              0.79107         *
 * C               3      0.44777             -0.23684              1.43563         *
 *                                                                                  *
 ************************************************************************************

 ***************** Stress Tensor *****************
 *                                               *
 *          Cartesian components (GPa)           *
 * --------------------------------------------- *
 *             x             y             z     *
 *                                               *
 *  x     -2.712562      0.317951     -1.496586  *
 *  y      0.317951     -3.753664      5.283709  *
 *  z     -1.496586      5.283709     -5.272141  *
 *                                               *
 *  Pressure:    3.9128                          *
 *                                               *
 *************************************************

 *********** Constrained Stress Tensor ***********
 *                                               *
 *          Cartesian components (GPa)           *
 * --------------------------------------------- *
 *             x             y             z     *
 *                                               *
 *  x     -2.713086     -0.000378     -0.002460  *
 *  y     -0.000378     -3.759894     -0.002466  *
 *  z     -0.002460     -0.002466     -5.278818  *
 *                                               *
 *  Pressure:    3.9173                          *
 *                                               *
 *************************************************
  
 +------------+-------------+-------------+-----------------+ <-- min LBFGS
 |    Step    |   lambda    |   F.delta'  |    enthalpy     | <-- min LBFGS
 +------------+-------------+-------------+-----------------+ <-- min LBFGS
 |  previous  |    0.000000 |    1.668951 |     -659.543276 | <-- min LBFGS
 | trial step |    1.000000 |    0.356353 |     -660.565047 | <-- min LBFGS
 +------------+-------------+-------------+-----------------+ <-- min LBFGS
  
 LBFGS: finished iteration     1 with enthalpy= -6.60565047E+002 eV
  
 +-----------+-----------------+-----------------+------------+-----+ <-- LBFGS
 | Parameter |      value      |    tolerance    |    units   | OK? | <-- LBFGS
 +-----------+-----------------+-----------------+------------+-----+ <-- LBFGS
 |  dE/ion   |   6.811808E-002 |   2.000000E-005 |         eV | No  | <-- LBFGS
 |  |F|max   |   3.363028E+000 |   5.000000E-002 |       eV/A | No  | <-- LBFGS
 |  |dR|max  |   1.250690E-001 |   1.000000E-003 |          A | No  | <-- LBFGS
 |   Smax    |   4.278818E+000 |   1.000000E-001 |        GPa | No  | <-- LBFGS
 +-----------+-----------------+-----------------+------------+-----+ <-- LBFGS
  

================================================================================
 Starting LBFGS iteration          2 ...
================================================================================
  
 +------------+-------------+-------------+-----------------+ <-- min LBFGS
 |    Step    |   lambda    |   F.delta'  |    enthalpy     | <-- min LBFGS
 +------------+-------------+-------------+-----------------+ <-- min LBFGS
 |  previous  |    0.000000 |    1.274961 |     -660.565047 | <-- min LBFGS
 +------------+-------------+-------------+-----------------+ <-- min LBFGS
  

--------------------------------------------------------------------------------
 LBFGS: starting iteration         2 with trial guess (lambda=  1.000000)
--------------------------------------------------------------------------------
 
+---------------- MEMORY AND SCRATCH DISK ESTIMATES PER PROCESS --------------+
|                                                     Memory          Disk    |
| Model and support data                               30.1 MB         8.3 MB |
| Electronic energy minimisation requirements          16.3 MB         0.0 MB |
| Geometry minimisation requirements                   19.4 MB         0.0 MB |
|                                               ----------------------------- |
| Approx. total storage required per process           65.8 MB         8.3 MB |
|                                                                             |
| Requirements will fluctuate during execution and may exceed these estimates |
+-----------------------------------------------------------------------------+
 

                           -------------------------------
                                      Unit Cell
                           -------------------------------
        Real Lattice(A)              Reciprocal Lattice(1/A)
     6.0163892    -0.0000015     0.0000099        1.044344883  -0.000000263   0.000001723
     0.0000015     6.0348450    -0.0000099        0.000000262   1.041151071  -0.000001708
    -0.0000100     0.0000099     6.0465608       -0.000001715   0.000001704   1.039133743

                       Lattice parameters(A)       Cell Angles
                    a =      6.016389          alpha =   90.000000
                    b =      6.034845          beta  =   90.000000
                    c =      6.046561          gamma =   90.000000

                Current cell volume =           219.538384 A**3

                           -------------------------------
                                     Cell Contents
                           -------------------------------

            xxxxxxxxxxxxxxxxxxxxxxxxxxxxxxxxxxxxxxxxxxxxxxxxxxxxxxxxxxxxxxxxx
            x  Element         Atom        Fractional coordinates of atoms  x
            x                 Number           u          v          w      x
            x---------------------------------------------------------------x
            x  H                 1         0.306858  -0.046625   0.996817   x
            x  H                 2         0.502333   0.072656   0.811737   x
            x  H                 3         0.283916   0.251879   0.891316   x
            x  H                 4         0.219861   0.016302   0.715143   x
            x  H                 5         0.799451   0.353013   0.542163   x
            x  H                 6         1.069708   0.258019   0.605472   x
            x  H                 7         1.011522   0.271113   0.333918   x
            x  H                 8         0.864062   0.061336   0.475211   x
            x  H                 9        -0.025314   0.625760   0.355630   x
            x  H                10        -0.109328   0.648127   0.069255   x
            x  H                11        -0.055200   0.384203   0.162498   x
            x  H                12         0.183387   0.559554   0.148609   x
            x  C                 1         0.322202   0.074113   0.857999   x
            x  C                 2         0.926802   0.238375   0.489875   x
            x  C                 3         0.004717   0.552209   0.194204   x
            xxxxxxxxxxxxxxxxxxxxxxxxxxxxxxxxxxxxxxxxxxxxxxxxxxxxxxxxxxxxxxxxx


------------------------------------------------------------------------ <-- SCF
SCF loop      Energy           Fermi           Energy gain       Timer   <-- SCF
                               energy          per atom          (sec)   <-- SCF
------------------------------------------------------------------------ <-- SCF
Initial  -6.59678286E+002  0.00000000E+000                        17.32  <-- SCF
      1  -6.62868693E+002 -4.11582932E-002   2.12693814E-001      17.61  <-- SCF
      2  -6.62889339E+002 -4.25971555E-002   1.37636031E-003      17.98  <-- SCF
      3  -6.62276301E+002 -1.95948541E-002  -4.08691617E-002      18.31  <-- SCF
      4  -6.62274719E+002 -1.90823464E-002  -1.05485805E-004      18.71  <-- SCF
      5  -6.62275019E+002 -2.67895694E-002   1.99667392E-005      19.05  <-- SCF
      6  -6.62275237E+002 -3.57702638E-002   1.45504083E-005      19.39  <-- SCF
      7  -6.62275322E+002 -4.17551876E-002   5.64956224E-006      19.68  <-- SCF
      8  -6.62275360E+002 -4.52062993E-002   2.56802982E-006      19.97  <-- SCF
------------------------------------------------------------------------ <-- SCF
 
Final energy, E             =  -662.2753600431     eV
Final free energy (E-TS)    =  -662.2753600431     eV
(energies not corrected for finite basis set)
 
NB est. 0K energy (E-0.5TS)      =  -662.2753600431     eV
 

 ************************************** Forces **************************************
 *                                                                                  *
 *                           Cartesian components (eV/A)                            *
 * -------------------------------------------------------------------------------- *
 *                         x                    y                    z              *
 *                                                                                  *
 * H               1     -0.33227              0.40700              0.26101         *
 * H               2     -0.00770             -0.13356             -0.22483         *
 * H               3     -0.25907             -0.25493              0.45836         *
 * H               4      0.23081             -0.04600              0.20877         *
 * H               5     -0.86924              0.65133             -0.25486         *
 * H               6     -0.40810             -0.36918              0.38882         *
 * H               7     -0.33260             -0.57138              0.57258         *
 * H               8      0.14300              0.44966              0.62353         *
 * H               9     -0.17538             -0.16433              0.72157         *
 * H              10      1.28196             -0.01619              0.59236         *
 * H              11     -0.21620              0.41109             -0.36192         *
 * H              12      0.04963              0.28022             -0.15600         *
 * C               1      0.77413             -0.25424             -0.37502         *
 * C               2      1.12546             -2.41477              0.89718         *
 * C               3     -1.00444              2.02526             -3.35156         *
 *                                                                                  *
 ************************************************************************************

 ***************** Stress Tensor *****************
 *                                               *
 *          Cartesian components (GPa)           *
 * --------------------------------------------- *
 *             x             y             z     *
 *                                               *
 *  x     -0.708089      0.463941      0.637323  *
 *  y      0.463941     -3.384141      3.486263  *
 *  z      0.637323      3.486263     -4.544526  *
 *                                               *
 *  Pressure:    2.8789                          *
 *                                               *
 *************************************************

 *********** Constrained Stress Tensor ***********
 *                                               *
 *          Cartesian components (GPa)           *
 * --------------------------------------------- *
 *             x             y             z     *
 *                                               *
 *  x     -0.708227     -0.000717      0.001590  *
 *  y     -0.000717     -3.386907     -0.003391  *
 *  z      0.001590     -0.003391     -4.547301  *
 *                                               *
 *  Pressure:    2.8808                          *
 *                                               *
 *************************************************
  
 +------------+-------------+-------------+-----------------+ <-- min LBFGS
 |    Step    |   lambda    |   F.delta'  |    enthalpy     | <-- min LBFGS
 +------------+-------------+-------------+-----------------+ <-- min LBFGS
 |  previous  |    0.000000 |    1.274961 |     -660.565047 | <-- min LBFGS
 | trial step |    1.000000 |   -0.326570 |     -660.906608 | <-- min LBFGS
 +------------+-------------+-------------+-----------------+ <-- min LBFGS
  
 LBFGS: finished iteration     2 with enthalpy= -6.60906608E+002 eV
  
 +-----------+-----------------+-----------------+------------+-----+ <-- LBFGS
 | Parameter |      value      |    tolerance    |    units   | OK? | <-- LBFGS
 +-----------+-----------------+-----------------+------------+-----+ <-- LBFGS
 |  dE/ion   |   2.277075E-002 |   2.000000E-005 |         eV | No  | <-- LBFGS
 |  |F|max   |   4.042710E+000 |   5.000000E-002 |       eV/A | No  | <-- LBFGS
 |  |dR|max  |   1.035370E-001 |   1.000000E-003 |          A | No  | <-- LBFGS
 |   Smax    |   3.547301E+000 |   1.000000E-001 |        GPa | No  | <-- LBFGS
 +-----------+-----------------+-----------------+------------+-----+ <-- LBFGS
  

================================================================================
 Starting LBFGS iteration          3 ...
================================================================================
  
 +------------+-------------+-------------+-----------------+ <-- min LBFGS
 |    Step    |   lambda    |   F.delta'  |    enthalpy     | <-- min LBFGS
 +------------+-------------+-------------+-----------------+ <-- min LBFGS
 |  previous  |    0.000000 |    1.270122 |     -660.906608 | <-- min LBFGS
 +------------+-------------+-------------+-----------------+ <-- min LBFGS
  

--------------------------------------------------------------------------------
 LBFGS: starting iteration         3 with trial guess (lambda=  1.000000)
--------------------------------------------------------------------------------
 
+---------------- MEMORY AND SCRATCH DISK ESTIMATES PER PROCESS --------------+
|                                                     Memory          Disk    |
| Model and support data                               30.1 MB         8.3 MB |
| Electronic energy minimisation requirements          16.4 MB         0.0 MB |
| Geometry minimisation requirements                   19.4 MB         0.0 MB |
|                                               ----------------------------- |
| Approx. total storage required per process           66.0 MB         8.3 MB |
|                                                                             |
| Requirements will fluctuate during execution and may exceed these estimates |
+-----------------------------------------------------------------------------+
 

                           -------------------------------
                                      Unit Cell
                           -------------------------------
        Real Lattice(A)              Reciprocal Lattice(1/A)
     6.0152062    -0.0000044     0.0000035        1.044550269  -0.000000764   0.000000609
     0.0000044     6.0444930    -0.0000235        0.000000760   1.039489224  -0.000004050
    -0.0000035     0.0000236     6.0608713       -0.000000605   0.000004039   1.036680198

                       Lattice parameters(A)       Cell Angles
                    a =      6.015206          alpha =   90.000000
                    b =      6.044493          beta  =   90.000000
                    c =      6.060871          gamma =   90.000000

                Current cell volume =           220.366445 A**3

                           -------------------------------
                                     Cell Contents
                           -------------------------------

            xxxxxxxxxxxxxxxxxxxxxxxxxxxxxxxxxxxxxxxxxxxxxxxxxxxxxxxxxxxxxxxxx
            x  Element         Atom        Fractional coordinates of atoms  x
            x                 Number           u          v          w      x
            x---------------------------------------------------------------x
            x  H                 1         0.305166  -0.044546   0.998153   x
            x  H                 2         0.502294   0.071974   0.810587   x
            x  H                 3         0.282597   0.250577   0.893661   x
            x  H                 4         0.221036   0.016067   0.716211   x
            x  H                 5         0.795025   0.356339   0.540858   x
            x  H                 6         1.067630   0.256134   0.607462   x
            x  H                 7         1.009829   0.268194   0.336848   x
            x  H                 8         0.864790   0.063633   0.478402   x
            x  H                 9        -0.026207   0.624921   0.359323   x
            x  H                10        -0.102800   0.648044   0.072286   x
            x  H                11        -0.056301   0.386303   0.160646   x
            x  H                12         0.183640   0.560986   0.147811   x
            x  C                 1         0.326144   0.072815   0.856080   x
            x  C                 2         0.932533   0.226041   0.494467   x
            x  C                 3        -0.000398   0.562554   0.177052   x
            xxxxxxxxxxxxxxxxxxxxxxxxxxxxxxxxxxxxxxxxxxxxxxxxxxxxxxxxxxxxxxxxx


------------------------------------------------------------------------ <-- SCF
SCF loop      Energy           Fermi           Energy gain       Timer   <-- SCF
                               energy          per atom          (sec)   <-- SCF
------------------------------------------------------------------------ <-- SCF
Initial  -6.54581291E+002  0.00000000E+000                        21.32  <-- SCF
      1  -6.65511191E+002 -2.03512906E-001   7.28659997E-001      21.62  <-- SCF
      2  -6.65682803E+002 -2.05863490E-001   1.14408350E-002      22.02  <-- SCF
      3  -6.62517723E+002 -4.96850237E-002  -2.11005357E-001      22.39  <-- SCF
      4  -6.62472490E+002 -2.73686896E-002  -3.01554254E-003      22.79  <-- SCF
      5  -6.62467826E+002 -3.69681936E-002  -3.10927636E-004      23.14  <-- SCF
      6  -6.62467634E+002 -5.38089387E-002  -1.27873437E-005      23.46  <-- SCF
      7  -6.62468369E+002 -6.95611263E-002   4.90264867E-005      23.78  <-- SCF
      8  -6.62468519E+002 -7.13960600E-002   9.98795415E-006      24.08  <-- SCF
      9  -6.62468562E+002 -7.00367770E-002   2.86273711E-006      24.33  <-- SCF
     10  -6.62468569E+002 -6.97601313E-002   4.50029884E-007      24.59  <-- SCF
     11  -6.62468572E+002 -6.92868719E-002   2.03489940E-007      24.83  <-- SCF
------------------------------------------------------------------------ <-- SCF
 
Final energy, E             =  -662.4685717881     eV
Final free energy (E-TS)    =  -662.4685717881     eV
(energies not corrected for finite basis set)
 
NB est. 0K energy (E-0.5TS)      =  -662.4685717881     eV
 

 ************************************** Forces **************************************
 *                                                                                  *
 *                           Cartesian components (eV/A)                            *
 * -------------------------------------------------------------------------------- *
 *                         x                    y                    z              *
 *                                                                                  *
 * H               1     -0.16006              0.41756              0.02034         *
 * H               2      0.64787             -0.13172             -0.34588         *
 * H               3     -0.06067             -0.55681              0.25071         *
 * H               4      0.20479             -0.10472              0.08197         *
 * H               5      0.94929             -1.15523             -0.67703         *
 * H               6      0.43917             -0.39572              1.06057         *
 * H               7     -0.14876             -0.50011              0.26688         *
 * H               8     -0.44814             -1.52124              0.51397         *
 * H               9      0.05227             -0.61199             -1.58796         *
 * H              10     -1.36813              2.27351             -2.32609         *
 * H              11     -0.05524              0.93624             -0.35309         *
 * H              12     -0.28747              0.41195             -0.39644         *
 * C               1     -0.20809              0.08511              0.32168         *
 * C               2     -1.10994              2.00124              0.37114         *
 * C               3      1.55311             -1.14806              2.79926         *
 *                                                                                  *
 ************************************************************************************

 ***************** Stress Tensor *****************
 *                                               *
 *          Cartesian components (GPa)           *
 * --------------------------------------------- *
 *             x             y             z     *
 *                                               *
 *  x     -1.750919      0.089994     -1.472067  *
 *  y      0.089994     -3.171143      4.320637  *
 *  z     -1.472067      4.320637     -3.806945  *
 *                                               *
 *  Pressure:    2.9097                          *
 *                                               *
 *************************************************

 *********** Constrained Stress Tensor ***********
 *                                               *
 *          Cartesian components (GPa)           *
 * --------------------------------------------- *
 *             x             y             z     *
 *                                               *
 *  x     -1.751412     -0.000219     -0.005521  *
 *  y     -0.000219     -3.175336     -0.005865  *
 *  z     -0.005521     -0.005865     -3.811532  *
 *                                               *
 *  Pressure:    2.9128                          *
 *                                               *
 *************************************************
  
 +------------+-------------+-------------+-----------------+ <-- min LBFGS
 |    Step    |   lambda    |   F.delta'  |    enthalpy     | <-- min LBFGS
 +------------+-------------+-------------+-----------------+ <-- min LBFGS
 |  previous  |    0.000000 |    1.270122 |     -660.906608 | <-- min LBFGS
 | trial step |    1.000000 |   -0.887349 |     -661.093640 | <-- min LBFGS
 +------------+-------------+-------------+-----------------+ <-- min LBFGS
  
 LBFGS: finished iteration     3 with enthalpy= -6.61093640E+002 eV
  
 +-----------+-----------------+-----------------+------------+-----+ <-- LBFGS
 | Parameter |      value      |    tolerance    |    units   | OK? | <-- LBFGS
 +-----------+-----------------+-----------------+------------+-----+ <-- LBFGS
 |  dE/ion   |   1.246880E-002 |   2.000000E-005 |         eV | No  | <-- LBFGS
 |  |F|max   |   3.528640E+000 |   5.000000E-002 |       eV/A | No  | <-- LBFGS
 |  |dR|max  |   1.251514E-001 |   1.000000E-003 |          A | No  | <-- LBFGS
 |   Smax    |   2.811532E+000 |   1.000000E-001 |        GPa | No  | <-- LBFGS
 +-----------+-----------------+-----------------+------------+-----+ <-- LBFGS
  

================================================================================
 Starting LBFGS iteration          4 ...
================================================================================
  
 +------------+-------------+-------------+-----------------+ <-- min LBFGS
 |    Step    |   lambda    |   F.delta'  |    enthalpy     | <-- min LBFGS
 +------------+-------------+-------------+-----------------+ <-- min LBFGS
 |  previous  |    0.000000 |    1.455372 |     -661.093640 | <-- min LBFGS
 +------------+-------------+-------------+-----------------+ <-- min LBFGS
  

--------------------------------------------------------------------------------
 LBFGS: starting iteration         4 with trial guess (lambda=  1.000000)
--------------------------------------------------------------------------------
 
+---------------- MEMORY AND SCRATCH DISK ESTIMATES PER PROCESS --------------+
|                                                     Memory          Disk    |
| Model and support data                               30.4 MB         8.9 MB |
| Electronic energy minimisation requirements          16.6 MB         0.0 MB |
| Geometry minimisation requirements                   19.7 MB         0.0 MB |
|                                               ----------------------------- |
| Approx. total storage required per process           66.7 MB         8.9 MB |
|                                                                             |
| Requirements will fluctuate during execution and may exceed these estimates |
+-----------------------------------------------------------------------------+
 

                           -------------------------------
                                      Unit Cell
                           -------------------------------
        Real Lattice(A)              Reciprocal Lattice(1/A)
     6.0182649    -0.0000053     0.0000260        1.044019399  -0.000000916   0.000004509
     0.0000053     6.0533049    -0.0000472        0.000000911   1.037976022  -0.000008092
    -0.0000262     0.0000473     6.0722296       -0.000004468   0.000008067   1.034741065

                       Lattice parameters(A)       Cell Angles
                    a =      6.018265          alpha =   90.000000
                    b =      6.053305          beta  =   90.000000
                    c =      6.072230          gamma =   90.000000

                Current cell volume =           221.213705 A**3

                           -------------------------------
                                     Cell Contents
                           -------------------------------

            xxxxxxxxxxxxxxxxxxxxxxxxxxxxxxxxxxxxxxxxxxxxxxxxxxxxxxxxxxxxxxxxx
            x  Element         Atom        Fractional coordinates of atoms  x
            x                 Number           u          v          w      x
            x---------------------------------------------------------------x
            x  H                 1         0.304352  -0.042410   0.998257   x
            x  H                 2         0.505592   0.071300   0.808812   x
            x  H                 3         0.282288   0.247729   0.894947   x
            x  H                 4         0.222079   0.015531   0.716632   x
            x  H                 5         0.799858   0.350429   0.537385   x
            x  H                 6         1.069866   0.254109   0.612902   x
            x  H                 7         1.009071   0.265636   0.338217   x
            x  H                 8         0.862509   0.055850   0.481038   x
            x  H                 9        -0.025941   0.621790   0.351177   x
            x  H                10        -0.109765   0.659675   0.060354   x
            x  H                11        -0.056583   0.391093   0.158835   x
            x  H                12         0.182176   0.563093   0.145777   x
            x  C                 1         0.325085   0.073250   0.857730   x
            x  C                 2         0.926882   0.236279   0.496371   x
            x  C                 3         0.007509   0.556681   0.191411   x
            xxxxxxxxxxxxxxxxxxxxxxxxxxxxxxxxxxxxxxxxxxxxxxxxxxxxxxxxxxxxxxxxx


------------------------------------------------------------------------ <-- SCF
SCF loop      Energy           Fermi           Energy gain       Timer   <-- SCF
                               energy          per atom          (sec)   <-- SCF
------------------------------------------------------------------------ <-- SCF
Initial  -6.55831862E+002  0.00000000E+000                        26.41  <-- SCF
      1  -6.64448055E+002 -6.25533489E-002   5.74412897E-001      26.69  <-- SCF
      2  -6.64543748E+002 -6.53551486E-002   6.37953982E-003      27.08  <-- SCF
      3  -6.62437514E+002 -2.87185701E-002  -1.40415603E-001      27.41  <-- SCF
      4  -6.62439691E+002 -1.02394251E-002   1.45088625E-004      27.79  <-- SCF
      5  -6.62440557E+002 -1.14313284E-002   5.77311472E-005      28.14  <-- SCF
      6  -6.62441606E+002 -1.92791007E-002   6.99345087E-005      28.47  <-- SCF
      7  -6.62442389E+002 -3.13715875E-002   5.22297168E-005      28.78  <-- SCF
      8  -6.62442600E+002 -3.83884766E-002   1.40510419E-005      29.08  <-- SCF
      9  -6.62442664E+002 -4.36721472E-002   4.29451076E-006      29.36  <-- SCF
     10  -6.62442669E+002 -4.47430152E-002   3.09388321E-007      29.66  <-- SCF
     11  -6.62442670E+002 -4.59152761E-002   8.24997797E-008      29.92  <-- SCF
------------------------------------------------------------------------ <-- SCF
 
Final energy, E             =  -662.4426701406     eV
Final free energy (E-TS)    =  -662.4426701406     eV
(energies not corrected for finite basis set)
 
NB est. 0K energy (E-0.5TS)      =  -662.4426701406     eV
 

 ************************************** Forces **************************************
 *                                                                                  *
 *                           Cartesian components (eV/A)                            *
 * -------------------------------------------------------------------------------- *
 *                         x                    y                    z              *
 *                                                                                  *
 * H               1     -0.16252              0.16686              0.24390         *
 * H               2     -0.24195             -0.09182              0.00902         *
 * H               3     -0.15453             -0.04744              0.29786         *
 * H               4      0.17058             -0.09374              0.13279         *
 * H               5     -1.34809              1.05270              0.09019         *
 * H               6     -0.59946             -0.26493              0.22120         *
 * H               7     -0.23618             -0.39153              0.39729         *
 * H               8      0.32416              1.07314              0.67911         *
 * H               9     -0.26255              0.27577              1.29516         *
 * H              10      1.83007             -0.63358              1.43306         *
 * H              11     -0.16594              0.12102             -0.27560         *
 * H              12      0.72102              0.28607             -0.23155         *
 * C               1      0.80602             -0.24510             -0.37085         *
 * C               2      1.49324             -3.16179              0.24730         *
 * C               3     -2.17387              1.95436             -4.16889         *
 *                                                                                  *
 ************************************************************************************

 ***************** Stress Tensor *****************
 *                                               *
 *          Cartesian components (GPa)           *
 * --------------------------------------------- *
 *             x             y             z     *
 *                                               *
 *  x     -0.912503      0.543540      1.170251  *
 *  y      0.543540     -2.839345      2.280930  *
 *  z      1.170251      2.280930     -3.827835  *
 *                                               *
 *  Pressure:    2.5266                          *
 *                                               *
 *************************************************

 *********** Constrained Stress Tensor ***********
 *                                               *
 *          Cartesian components (GPa)           *
 * --------------------------------------------- *
 *             x             y             z     *
 *                                               *
 *  x     -0.912874     -0.001599      0.005181  *
 *  y     -0.001599     -2.840599     -0.003582  *
 *  z      0.005181     -0.003582     -3.829270  *
 *                                               *
 *  Pressure:    2.5276                          *
 *                                               *
 *************************************************
  
 +------------+-------------+-------------+-----------------+ <-- min LBFGS
 |    Step    |   lambda    |   F.delta'  |    enthalpy     | <-- min LBFGS
 +------------+-------------+-------------+-----------------+ <-- min LBFGS
 |  previous  |    0.000000 |    1.455372 |     -661.093640 | <-- min LBFGS
 | trial step |    1.000000 |   -1.290982 |     -661.084266 | <-- min LBFGS
 +------------+-------------+-------------+-----------------+ <-- min LBFGS
  
 LBFGS: finished iteration     4 with enthalpy= -6.61084266E+002 eV
  
 +-----------+-----------------+-----------------+------------+-----+ <-- LBFGS
 | Parameter |      value      |    tolerance    |    units   | OK? | <-- LBFGS
 +-----------+-----------------+-----------------+------------+-----+ <-- LBFGS
 |  dE/ion   |   6.249425E-004 |   2.000000E-005 |         eV | No  | <-- LBFGS
 |  |F|max   |   5.091647E+000 |   5.000000E-002 |       eV/A | No  | <-- LBFGS
 |  |dR|max  |   1.093793E-001 |   1.000000E-003 |          A | No  | <-- LBFGS
 |   Smax    |   2.829270E+000 |   1.000000E-001 |        GPa | No  | <-- LBFGS
 +-----------+-----------------+-----------------+------------+-----+ <-- LBFGS
  

================================================================================
 Starting LBFGS iteration          5 ...
================================================================================

Writing analysis data to castep.castep_bin

Writing model to castep.check
  
 +------------+-------------+-------------+-----------------+ <-- min LBFGS
 |    Step    |   lambda    |   F.delta'  |    enthalpy     | <-- min LBFGS
 +------------+-------------+-------------+-----------------+ <-- min LBFGS
 |  previous  |    0.000000 |    1.631154 |     -661.084266 | <-- min LBFGS
 +------------+-------------+-------------+-----------------+ <-- min LBFGS
  

--------------------------------------------------------------------------------
 LBFGS: starting iteration         5 with trial guess (lambda=  1.000000)
--------------------------------------------------------------------------------
 
+---------------- MEMORY AND SCRATCH DISK ESTIMATES PER PROCESS --------------+
|                                                     Memory          Disk    |
| Model and support data                               30.5 MB         8.9 MB |
| Electronic energy minimisation requirements          16.6 MB         0.0 MB |
| Geometry minimisation requirements                   19.7 MB         0.0 MB |
|                                               ----------------------------- |
| Approx. total storage required per process           66.8 MB         8.9 MB |
|                                                                             |
| Requirements will fluctuate during execution and may exceed these estimates |
+-----------------------------------------------------------------------------+
 

                           -------------------------------
                                      Unit Cell
                           -------------------------------
        Real Lattice(A)              Reciprocal Lattice(1/A)
     6.0179091    -0.0000117     0.0000049        1.044081131  -0.000002033   0.000000846
     0.0000118     6.0607786    -0.0000617        0.000002019   1.036696066  -0.000010547
    -0.0000049     0.0000619     6.0836820       -0.000000837   0.000010508   1.032793191

                       Lattice parameters(A)       Cell Angles
                    a =      6.017909          alpha =   90.000000
                    b =      6.060779          beta  =   90.000000
                    c =      6.083682          gamma =   90.000000

                Current cell volume =           221.891436 A**3

                           -------------------------------
                                     Cell Contents
                           -------------------------------

            xxxxxxxxxxxxxxxxxxxxxxxxxxxxxxxxxxxxxxxxxxxxxxxxxxxxxxxxxxxxxxxxx
            x  Element         Atom        Fractional coordinates of atoms  x
            x                 Number           u          v          w      x
            x---------------------------------------------------------------x
            x  H                 1         0.303524  -0.041555   0.999511   x
            x  H                 2         0.504360   0.070830   0.808859   x
            x  H                 3         0.281501   0.247485   0.896478   x
            x  H                 4         0.222947   0.015051   0.717314   x
            x  H                 5         0.792991   0.355823   0.537849   x
            x  H                 6         1.066812   0.252752   0.614039   x
            x  H                 7         1.007868   0.263630   0.340259   x
            x  H                 8         0.864160   0.061348   0.484529   x
            x  H                 9        -0.027278   0.623203   0.357833   x
            x  H                10        -0.100443   0.656429   0.067719   x
            x  H                11        -0.057428   0.391713   0.157418   x
            x  H                12         0.185849   0.564559   0.144587   x
            x  C                 1         0.329190   0.071995   0.855824   x
            x  C                 2         0.934488   0.220080   0.497641   x
            x  C                 3        -0.003564   0.566693   0.169986   x
            xxxxxxxxxxxxxxxxxxxxxxxxxxxxxxxxxxxxxxxxxxxxxxxxxxxxxxxxxxxxxxxxx


------------------------------------------------------------------------ <-- SCF
SCF loop      Energy           Fermi           Energy gain       Timer   <-- SCF
                               energy          per atom          (sec)   <-- SCF
------------------------------------------------------------------------ <-- SCF
Initial  -6.49778888E+002  0.00000000E+000                        31.37  <-- SCF
      1  -6.67241362E+002 -2.57263549E-001   1.16416494E+000      31.66  <-- SCF
      2  -6.67610419E+002 -2.57729042E-001   2.46037990E-002      32.03  <-- SCF
      3  -6.62586682E+002 -4.74336950E-002  -3.34915807E-001      32.39  <-- SCF
      4  -6.62530710E+002 -3.34616325E-002  -3.73150088E-003      32.79  <-- SCF
      5  -6.62524144E+002 -4.69389247E-002  -4.37719651E-004      33.17  <-- SCF
      6  -6.62524796E+002 -6.74841103E-002   4.34728173E-005      33.50  <-- SCF
      7  -6.62525702E+002 -8.63233511E-002   6.03969462E-005      33.83  <-- SCF
      8  -6.62525875E+002 -8.99010592E-002   1.15013645E-005      34.12  <-- SCF
      9  -6.62525900E+002 -8.96390371E-002   1.70789301E-006      34.40  <-- SCF
     10  -6.62525908E+002 -8.91201981E-002   5.43196206E-007      34.68  <-- SCF
     11  -6.62525910E+002 -8.85582204E-002   1.47475525E-007      34.92  <-- SCF
------------------------------------------------------------------------ <-- SCF
 
Final energy, E             =  -662.5259104949     eV
Final free energy (E-TS)    =  -662.5259104949     eV
(energies not corrected for finite basis set)
 
NB est. 0K energy (E-0.5TS)      =  -662.5259104949     eV
 

 ************************************** Forces **************************************
 *                                                                                  *
 *                           Cartesian components (eV/A)                            *
 * -------------------------------------------------------------------------------- *
 *                         x                    y                    z              *
 *                                                                                  *
 * H               1     -0.00346              0.29016             -0.06975         *
 * H               2      0.69457             -0.10243             -0.22434         *
 * H               3      0.05816             -0.48234              0.09445         *
 * H               4      0.22392             -0.11939              0.08649         *
 * H               5      1.38535             -1.62304             -0.59161         *
 * H               6      0.27025             -0.38790              0.82688         *
 * H               7      0.08539             -0.38303             -0.08999         *
 * H               8     -0.63952             -1.96041              0.45691         *
 * H               9      0.04676             -0.52914             -2.11669         *
 * H              10     -1.74294              2.59170             -2.60017         *
 * H              11     -0.18652              0.53212             -0.41145         *
 * H              12     -1.01725              0.39293             -0.28686         *
 * C               1     -0.53810              0.09470              0.44280         *
 * C               2     -1.44508              3.18453              0.51833         *
 * C               3      2.80845             -1.49846              3.96502         *
 *                                                                                  *
 ************************************************************************************

 ***************** Stress Tensor *****************
 *                                               *
 *          Cartesian components (GPa)           *
 * --------------------------------------------- *
 *             x             y             z     *
 *                                               *
 *  x     -1.142854     -0.246652     -1.585448  *
 *  y     -0.246652     -3.249865      3.954022  *
 *  z     -1.585448      3.954022     -3.051116  *
 *                                               *
 *  Pressure:    2.4813                          *
 *                                               *
 *************************************************

 *********** Constrained Stress Tensor ***********
 *                                               *
 *          Cartesian components (GPa)           *
 * --------------------------------------------- *
 *             x             y             z     *
 *                                               *
 *  x     -1.143441      0.000885     -0.008519  *
 *  y      0.000885     -3.253434     -0.007481  *
 *  z     -0.008519     -0.007481     -3.055071  *
 *                                               *
 *  Pressure:    2.4840                          *
 *                                               *
 *************************************************
  
 +------------+-------------+-------------+-----------------+ <-- min LBFGS
 |    Step    |   lambda    |   F.delta'  |    enthalpy     | <-- min LBFGS
 +------------+-------------+-------------+-----------------+ <-- min LBFGS
 |  previous  |    0.000000 |    1.631154 |     -661.084266 | <-- min LBFGS
 | trial step |    1.000000 |   -1.680898 |     -661.158837 | <-- min LBFGS
 +------------+-------------+-------------+-----------------+ <-- min LBFGS
  
 LBFGS: finished iteration     5 with enthalpy= -6.61158837E+002 eV
  
 +-----------+-----------------+-----------------+------------+-----+ <-- LBFGS
 | Parameter |      value      |    tolerance    |    units   | OK? | <-- LBFGS
 +-----------+-----------------+-----------------+------------+-----+ <-- LBFGS
 |  dE/ion   |   4.971396E-003 |   2.000000E-005 |         eV | No  | <-- LBFGS
 |  |F|max   |   5.084699E+000 |   5.000000E-002 |       eV/A | No  | <-- LBFGS
 |  |dR|max  |   1.584701E-001 |   1.000000E-003 |          A | No  | <-- LBFGS
 |   Smax    |   2.253434E+000 |   1.000000E-001 |        GPa | No  | <-- LBFGS
 +-----------+-----------------+-----------------+------------+-----+ <-- LBFGS
  

================================================================================
 Starting LBFGS iteration          6 ...
[...]
      6  -6.60126589E+002  3.70039409E+000   3.01622743E-004      69.85  <-- SCF
      7  -6.60127233E+002  3.70415703E+000   4.29485276E-005      69.99  <-- SCF
      8  -6.60127285E+002  3.70506068E+000   3.45781059E-006      70.12  <-- SCF
      9  -6.60127289E+002  3.70517157E+000   2.52815380E-007      70.23  <-- SCF
------------------------------------------------------------------------ <-- SCF
 
Final energy, E             =  -660.1272885455     eV
Final free energy (E-TS)    =  -660.1272885455     eV
(energies not corrected for finite basis set)
 
NB est. 0K energy (E-0.5TS)      =  -660.1272885455     eV
 

 ************************************** Forces **************************************
 *                                                                                  *
 *                           Cartesian components (eV/A)                            *
 * -------------------------------------------------------------------------------- *
 *                         x                    y                    z              *
 *                                                                                  *
 * H               1     -0.84741             -1.37749              2.68200         *
 * H               2     -2.94322             -0.62823              0.13136         *
 * H               3      1.22839             -2.75900              0.44171         *
 * H               4     -0.57472             -1.79375             -1.74918         *
 * H               5     -2.35371              0.91012             -0.60010         *
 * H               6      0.99468              2.08574              2.08653         *
 * H               7     -1.81351              0.25481              2.23618         *
 * H               8      0.18533              2.69622             -0.98021         *
 * H               9     -0.94001              0.85070              3.00710         *
 * H              10      0.23474             -2.42503              1.89286         *
 * H              11      1.56608              1.84056              1.04593         *
 * H              12      2.27945             -0.73640              0.42522         *
 * C               1      3.27470              6.62792             -1.32981         *
 * C               2      3.03176             -6.14280             -2.83139         *
 * C               3     -3.32254              0.59661             -6.45823         *
 *                                                                                  *
 ************************************************************************************

 ***************** Stress Tensor *****************
 *                                               *
 *          Cartesian components (GPa)           *
 * --------------------------------------------- *
 *             x             y             z     *
 *                                               *
 *  x     -9.128809      1.148831      0.426939  *
 *  y      1.148831     -2.600844     -5.314488  *
 *  z      0.426939     -5.314488    -17.157704  *
 *                                               *
 *  Pressure:    9.6291                          *
 *                                               *
 *************************************************

 *********** Constrained Stress Tensor ***********
 *                                               *
 *          Cartesian components (GPa)           *
 * --------------------------------------------- *
 *             x             y             z     *
 *                                               *
 *  x     -9.129692     -0.007916     -0.003170  *
 *  y     -0.007916     -2.599192     -0.036773  *
 *  z     -0.003170     -0.036773    -17.171351  *
 *                                               *
 *  Pressure:    9.6334                          *
 *                                               *
 *************************************************
  
 +------------+-------------+-------------+-----------------+ <-- min LBFGS
 |    Step    |   lambda    |   F.delta'  |    enthalpy     | <-- min LBFGS
 +------------+-------------+-------------+-----------------+ <-- min LBFGS
 |  previous  |    0.000000 |    2.780345 |     -654.143234 | <-- min LBFGS
 | trial step |    1.000000 |   -2.773535 |     -654.147198 | <-- min LBFGS
 +------------+-------------+-------------+-----------------+ <-- min LBFGS
  
 LBFGS: finished iteration    30 with enthalpy= -6.54147198E+002 eV
  
 +-----------+-----------------+-----------------+------------+-----+ <-- LBFGS
 | Parameter |      value      |    tolerance    |    units   | OK? | <-- LBFGS
 +-----------+-----------------+-----------------+------------+-----+ <-- LBFGS
 |  dE/ion   |   2.642756E-004 |   2.000000E-005 |         eV | No  | <-- LBFGS
 |  |F|max   |   7.511419E+000 |   5.000000E-002 |       eV/A | No  | <-- LBFGS
 |  |dR|max  |   2.244184E-001 |   1.000000E-003 |          A | No  | <-- LBFGS
 |   Smax    |   7.400808E+000 |   1.000000E-001 |        GPa | No  | <-- LBFGS
 +-----------+-----------------+-----------------+------------+-----+ <-- LBFGS
  
 LBFGS: WARNING - Geometry optimization failed to converge after         30 steps

================================================================================
 LBFGS: Final Configuration:
================================================================================

                           -------------------------------
                                      Unit Cell
                           -------------------------------
        Real Lattice(A)              Reciprocal Lattice(1/A)
     4.4025964    -0.0008589    -0.0026587        1.427153950  -0.000278430  -0.000861856
     0.0009180     4.7247677    -0.0062418        0.000258383   1.329837678  -0.001756825
     0.0028030     0.0061288     4.6396020        0.000818178   0.001788915   1.354248082

                       Lattice parameters(A)       Cell Angles
                    a =      4.402597          alpha =   90.000000
                    b =      4.724772          beta  =   90.000000
                    c =      4.639607          gamma =   90.000000

                Current cell volume =            96.509704 A**3

                           -------------------------------
                                     Cell Contents
                           -------------------------------

            xxxxxxxxxxxxxxxxxxxxxxxxxxxxxxxxxxxxxxxxxxxxxxxxxxxxxxxxxxxxxxxxx
            x  Element         Atom        Fractional coordinates of atoms  x
            x                 Number           u          v          w      x
            x---------------------------------------------------------------x
            x  H                 1         0.371978  -0.028905   1.147541   x
            x  H                 2         0.690954   0.096288   0.940514   x
            x  H                 3         0.300961   0.273050   0.903441   x
            x  H                 4         0.374210  -0.083017   0.761626   x
            x  H                 5         0.659164   0.242502   0.426294   x
            x  H                 6         0.980854   0.320013   0.649906   x
            x  H                 7         1.045746   0.171884   0.295274   x
            x  H                 8         0.863834  -0.049604   0.597320   x
            x  H                 9        -0.137907   0.685296   0.306197   x
            x  H                10        -0.065129   0.828592  -0.051622   x
            x  H                11        -0.209670   0.446976   0.009250   x
            x  H                12         0.180395   0.559906   0.103455   x
            x  C                 1         0.419675   0.037378   0.943227   x
            x  C                 2         0.874067   0.194687   0.502078   x
            x  C                 3        -0.044153   0.624988   0.115345   x
            xxxxxxxxxxxxxxxxxxxxxxxxxxxxxxxxxxxxxxxxxxxxxxxxxxxxxxxxxxxxxxxxx


 LBFGS: Final Enthalpy     = -6.54147198E+002 eV
 LBFGS: Final <frequency>  unchanged from initial value
 LBFGS: Final bulk modulus unchanged from initial value
  
  **********************************************************
  *** There were at least     1 warnings during this run ***
  *** => please check the whole of this file carefully!  ***
  **********************************************************

 ************************************** Forces **************************************
 *                                                                                  *
 *                           Cartesian components (eV/A)                            *
 * -------------------------------------------------------------------------------- *
 *                         x                    y                    z              *
 *                                                                                  *
 * H               1     -0.84741             -1.37749              2.68200         *
 * H               2     -2.94322             -0.62823              0.13136         *
 * H               3      1.22839             -2.75900              0.44171         *
 * H               4     -0.57472             -1.79375             -1.74918         *
 * H               5     -2.35371              0.91012             -0.60010         *
 * H               6      0.99468              2.08574              2.08653         *
 * H               7     -1.81351              0.25481              2.23618         *
 * H               8      0.18533              2.69622             -0.98021         *
 * H               9     -0.94001              0.85070              3.00710         *
 * H              10      0.23474             -2.42503              1.89286         *
 * H              11      1.56608              1.84056              1.04593         *
 * H              12      2.27945             -0.73640              0.42522         *
 * C               1      3.27470              6.62792             -1.32981         *
 * C               2      3.03176             -6.14280             -2.83139         *
 * C               3     -3.32254              0.59661             -6.45823         *
 *                                                                                  *
 ************************************************************************************

 Pseudo atomic calculation performed for H 1s1

 Converged in 14 iterations to a total energy of -12.3840 eV


 Pseudo atomic calculation performed for C 2s2 2p2

 Converged in 17 iterations to a total energy of -148.1084 eV

Charge spilling parameter for spin component 1 = 1.02%

            Orbital Populations       
     Ion    Atom   Orbital             Charge
  -------------------------------------------
      H     1      S                    0.741
      H     2      S                    0.864
      H     3      S                    0.863
      H     4      S                    0.720
      H     5      S                    0.728
      H     6      S                    0.751
      H     7      S                    0.839
      H     8      S                    0.870
      H     9      S                    0.733
      H    10      S                    0.872
      H    11      S                    0.842
      H    12      S                    0.762
      C     1      S                    1.360
      C     1      Px                   1.105
      C     1      Py                   1.122
      C     1      Pz                   1.222
      C     2      S                    1.365
      C     2      Px                   1.183
      C     2      Py                   1.114
      C     2      Pz                   1.147
      C     3      S                    1.360
      C     3      Px                   1.166
      C     3      Py                   1.112
      C     3      Pz                   1.159
  -------------------------------------------
                           Total:      24.000
  -------------------------------------------

     Atomic Populations (Mulliken)
     -----------------------------
Species          Ion     s      p      d      f     Total  Charge (e)
=====================================================================
  H               1     0.74   0.00   0.00   0.00   0.74     0.26
  H               2     0.86   0.00   0.00   0.00   0.86     0.14
  H               3     0.86   0.00   0.00   0.00   0.86     0.14
  H               4     0.72   0.00   0.00   0.00   0.72     0.28
  H               5     0.73   0.00   0.00   0.00   0.73     0.27
  H               6     0.75   0.00   0.00   0.00   0.75     0.25
  H               7     0.84   0.00   0.00   0.00   0.84     0.16
  H               8     0.87   0.00   0.00   0.00   0.87     0.13
  H               9     0.73   0.00   0.00   0.00   0.73     0.27
  H              10     0.87   0.00   0.00   0.00   0.87     0.13
  H              11     0.84   0.00   0.00   0.00   0.84     0.16
  H              12     0.76   0.00   0.00   0.00   0.76     0.24
  C               1     1.36   3.45   0.00   0.00   4.81    -0.81
  C               2     1.36   3.44   0.00   0.00   4.81    -0.81
  C               3     1.36   3.44   0.00   0.00   4.80    -0.80
=====================================================================

                 Bond                   Population      Length (A)
======================================================================
              H 9  -- C 3                    0.95        1.01766
              H 1  -- C 1                    0.95        1.02017
              H 6  -- C 2                    0.96        1.02082
              H 5  -- C 2                    0.92        1.03433
              H 4  -- C 1                    0.92        1.03612
              H 12 -- C 3                    0.94        1.03678
              H 11 -- C 3                    0.90        1.21684
              H 7  -- C 2                    0.90        1.22618
              H 2  -- C 1                    0.93        1.22640
              H 8  -- C 2                    0.90        1.23674
              H 10 -- C 3                    0.91        1.23856
              H 3  -- C 1                    0.87        1.24383
              H 2  -- H 10                  -0.06        1.65960
              H 3  -- H 12                  -0.07        1.72622
              H 2  -- H 11                  -0.04        1.74313
              H 8  -- H 10                  -0.04        1.75554
              H 9  -- H 12                  -0.08        1.78874
              H 5  -- H 6                   -0.08        1.79340
              H 1  -- H 2                   -0.12        1.80128
              H 9  -- H 11                  -0.10        1.80716
              H 1  -- H 4                   -0.07        1.80868
              H 6  -- H 7                   -0.12        1.81070
              H 10 -- H 12                  -0.11        1.81595
              H 9  -- H 10                  -0.10        1.82129
              H 5  -- H 8                   -0.10        1.82930
              H 2  -- H 4                   -0.10        1.83062
              H 3  -- H 4                   -0.10        1.83499
              H 6  -- H 8                   -0.09        1.83704
              H 5  -- H 7                   -0.09        1.83781
              H 8  -- H 9                   -0.06        1.84209
              H 1  -- H 3                   -0.09        1.84817
              H 3  -- H 6                   -0.06        1.84907
              H 11 -- H 12                  -0.09        1.85064
              H 1  -- H 7                   -0.06        1.85274
              H 2  -- H 8                   -0.06        1.89469
              H 2  -- H 3                   -0.10        1.91706
              H 7  -- H 8                   -0.10        1.92364
              H 10 -- H 11                  -0.10        1.93280
              H 6  -- H 11                  -0.05        1.96037
              H 7  -- H 12                  -0.05        2.12238
              H 1  -- H 12                  -0.05        2.12782
              H 2  -- H 6                   -0.03        2.13641
              H 4  -- H 10                  -0.06        2.16019
              H 7  -- H 11                  -0.03        2.17137
              H 3  -- H 7                   -0.02        2.18996
              H 1  -- H 5                   -0.03        2.21712
              H 2  -- C 2                   -0.10        2.23694
              H 1  -- H 10                  -0.05        2.23842
              H 5  -- H 11                  -0.04        2.23846
              H 4  -- H 8                   -0.05        2.29188
              H 2  -- H 7                   -0.01        2.29708
              H 7  -- C 3                   -0.10        2.33166
              H 7  -- H 10                  -0.01        2.33655
              H 5  -- H 9                   -0.03        2.34213
              H 10 -- C 1                   -0.14        2.35145
              H 3  -- H 11                  -0.03        2.35757
              H 2  -- H 5                   -0.04        2.36148
              H 7  -- C 1                   -0.07        2.40456
              H 6  -- H 9                   -0.02        2.40728
              H 7  -- H 9                   -0.04        2.43758
              H 3  -- C 3                   -0.08        2.45767
              H 1  -- C 3                   -0.09        2.46026
              H 4  -- H 12                  -0.02        2.46773
              H 9  -- C 2                   -0.12        2.49036
              H 4  -- H 5                   -0.01        2.52187
              H 6  -- H 12                  -0.02        2.54646
              H 11 -- C 1                   -0.06        2.54989
              H 8  -- C 1                   -0.10        2.56287
              H 6  -- C 3                   -0.07        2.59839
              H 12 -- C 1                   -0.09        2.59840
              H 11 -- C 2                   -0.10        2.60480
              H 4  -- H 6                   -0.01        2.62561
              H 2  -- C 3                   -0.09        2.64133
              H 1  -- H 9                   -0.02        2.64977
              H 3  -- H 10                   0.00        2.65538
              H 5  -- C 3                   -0.05        2.65580
              H 5  -- C 1                   -0.07        2.65973
              H 3  -- C 2                   -0.09        2.67153
              H 2  -- H 9                   -0.01        2.68645
              H 6  -- H 10                  -0.01        2.71102
              H 10 -- C 2                   -0.05        2.71131
              H 6  -- C 1                   -0.06        2.71436
              H 3  -- H 5                   -0.01        2.72188
               C 2 -- C 3                   -0.20        2.73541
              H 8  -- C 3                   -0.08        2.74380
              H 4  -- C 3                   -0.05        2.82651
              H 4  -- C 2                   -0.05        2.83101
              H 3  -- H 8                   -0.00        2.83635
              H 12 -- C 2                   -0.03        2.86652
              H 4  -- H 7                    0.00        2.86761
               C 1 -- C 3                   -0.21        2.93328
              H 1  -- C 2                   -0.05        2.93719
               C 1 -- C 2                   -0.19        2.95697
              H 1  -- H 11                   0.01        2.97648
              H 5  -- H 12                  -0.00        2.98922
======================================================================


Writing analysis data to castep.castep_bin

Writing model to castep.check
 
 A BibTeX formatted list of references used in this run has been written to 
 castep.bib
 
Initialisation time =      3.66 s
Calculation time    =     67.66 s
Finalisation time   =      0.11 s
Total time          =     71.43 s
Peak Memory Use     = 168772 kB
